[Molden Format]
[Atoms] AU
   C     1     6    0.00000000    1.00155485    1.00155485
   C     2     6    0.00000000   -1.00155485    1.00155485
   C     3     6    0.00000000   -1.00155485   -1.00155485
   C     4     6    0.00000000    1.00155485   -1.00155485
   H     5     1    0.00000000    2.45853369    2.45853369
   H     6     1    0.00000000   -2.45853369    2.45853369
   H     7     1    0.00000000   -2.45853369   -2.45853369
   H     8     1    0.00000000    2.45853369   -2.45853369
[GTO]
   1   0
   s     8  1.00
    6.6650000000E+03    6.9200000000E-04
    1.0000000000E+03    5.3290000000E-03
    2.2800000000E+02    2.7077000000E-02
    6.4710000000E+01    1.0171800000E-01
    2.1060000000E+01    2.7474000000E-01
    7.4950000000E+00    4.4856400000E-01
    2.7970000000E+00    2.8507400000E-01
    5.2150000000E-01    1.5204000000E-02
   s     8  1.00
    6.6650000000E+03   -1.4600000000E-04
    1.0000000000E+03   -1.1540000000E-03
    2.2800000000E+02   -5.7250000000E-03
    6.4710000000E+01   -2.3312000000E-02
    2.1060000000E+01   -6.3955000000E-02
    7.4950000000E+00   -1.4998100000E-01
    2.7970000000E+00   -1.2726200000E-01
    5.2150000000E-01    5.4452900000E-01
   s     1  1.00
    1.5960000000E-01    1.0000000000E+00
   p     3  1.00
    9.4390000000E+00    3.8109000000E-02
    2.0020000000E+00    2.0948000000E-01
    5.4560000000E-01    5.0855700000E-01
   p     1  1.00
    1.5170000000E-01    1.0000000000E+00
   d     1  1.00
    5.5000000000E-01    1.0000000000E+00

   2   0
   s     8  1.00
    6.6650000000E+03    6.9200000000E-04
    1.0000000000E+03    5.3290000000E-03
    2.2800000000E+02    2.7077000000E-02
    6.4710000000E+01    1.0171800000E-01
    2.1060000000E+01    2.7474000000E-01
    7.4950000000E+00    4.4856400000E-01
    2.7970000000E+00    2.8507400000E-01
    5.2150000000E-01    1.5204000000E-02
   s     8  1.00
    6.6650000000E+03   -1.4600000000E-04
    1.0000000000E+03   -1.1540000000E-03
    2.2800000000E+02   -5.7250000000E-03
    6.4710000000E+01   -2.3312000000E-02
    2.1060000000E+01   -6.3955000000E-02
    7.4950000000E+00   -1.4998100000E-01
    2.7970000000E+00   -1.2726200000E-01
    5.2150000000E-01    5.4452900000E-01
   s     1  1.00
    1.5960000000E-01    1.0000000000E+00
   p     3  1.00
    9.4390000000E+00    3.8109000000E-02
    2.0020000000E+00    2.0948000000E-01
    5.4560000000E-01    5.0855700000E-01
   p     1  1.00
    1.5170000000E-01    1.0000000000E+00
   d     1  1.00
    5.5000000000E-01    1.0000000000E+00

   3   0
   s     8  1.00
    6.6650000000E+03    6.9200000000E-04
    1.0000000000E+03    5.3290000000E-03
    2.2800000000E+02    2.7077000000E-02
    6.4710000000E+01    1.0171800000E-01
    2.1060000000E+01    2.7474000000E-01
    7.4950000000E+00    4.4856400000E-01
    2.7970000000E+00    2.8507400000E-01
    5.2150000000E-01    1.5204000000E-02
   s     8  1.00
    6.6650000000E+03   -1.4600000000E-04
    1.0000000000E+03   -1.1540000000E-03
    2.2800000000E+02   -5.7250000000E-03
    6.4710000000E+01   -2.3312000000E-02
    2.1060000000E+01   -6.3955000000E-02
    7.4950000000E+00   -1.4998100000E-01
    2.7970000000E+00   -1.2726200000E-01
    5.2150000000E-01    5.4452900000E-01
   s     1  1.00
    1.5960000000E-01    1.0000000000E+00
   p     3  1.00
    9.4390000000E+00    3.8109000000E-02
    2.0020000000E+00    2.0948000000E-01
    5.4560000000E-01    5.0855700000E-01
   p     1  1.00
    1.5170000000E-01    1.0000000000E+00
   d     1  1.00
    5.5000000000E-01    1.0000000000E+00

   4   0
   s     8  1.00
    6.6650000000E+03    6.9200000000E-04
    1.0000000000E+03    5.3290000000E-03
    2.2800000000E+02    2.7077000000E-02
    6.4710000000E+01    1.0171800000E-01
    2.1060000000E+01    2.7474000000E-01
    7.4950000000E+00    4.4856400000E-01
    2.7970000000E+00    2.8507400000E-01
    5.2150000000E-01    1.5204000000E-02
   s     8  1.00
    6.6650000000E+03   -1.4600000000E-04
    1.0000000000E+03   -1.1540000000E-03
    2.2800000000E+02   -5.7250000000E-03
    6.4710000000E+01   -2.3312000000E-02
    2.1060000000E+01   -6.3955000000E-02
    7.4950000000E+00   -1.4998100000E-01
    2.7970000000E+00   -1.2726200000E-01
    5.2150000000E-01    5.4452900000E-01
   s     1  1.00
    1.5960000000E-01    1.0000000000E+00
   p     3  1.00
    9.4390000000E+00    3.8109000000E-02
    2.0020000000E+00    2.0948000000E-01
    5.4560000000E-01    5.0855700000E-01
   p     1  1.00
    1.5170000000E-01    1.0000000000E+00
   d     1  1.00
    5.5000000000E-01    1.0000000000E+00

   5   0
   s     3  1.00
    1.3010000000E+01    1.9685000000E-02
    1.9620000000E+00    1.3797700000E-01
    4.4460000000E-01    4.7814800000E-01
   s     1  1.00
    1.2200000000E-01    1.0000000000E+00
   p     1  1.00
    7.2700000000E-01    1.0000000000E+00

   6   0
   s     3  1.00
    1.3010000000E+01    1.9685000000E-02
    1.9620000000E+00    1.3797700000E-01
    4.4460000000E-01    4.7814800000E-01
   s     1  1.00
    1.2200000000E-01    1.0000000000E+00
   p     1  1.00
    7.2700000000E-01    1.0000000000E+00

   7   0
   s     3  1.00
    1.3010000000E+01    1.9685000000E-02
    1.9620000000E+00    1.3797700000E-01
    4.4460000000E-01    4.7814800000E-01
   s     1  1.00
    1.2200000000E-01    1.0000000000E+00
   p     1  1.00
    7.2700000000E-01    1.0000000000E+00

   8   0
   s     3  1.00
    1.3010000000E+01    1.9685000000E-02
    1.9620000000E+00    1.3797700000E-01
    4.4460000000E-01    4.7814800000E-01
   s     1  1.00
    1.2200000000E-01    1.0000000000E+00
   p     1  1.00
    7.2700000000E-01    1.0000000000E+00

[5D]
[MO]
   Sym= A
   Ene=     0.0000000000
  Spin= Alpha
 Occup= 1.9999689856
     1 1.3243011779E-03
     2 1.0789218144E-02
     3 -1.1487847139E-02
     4 -3.5675919638E-16
     5 1.3557474594E-03
     6 -8.3244077218E-03
     7 -3.1735873643E-15
     8 3.4772066091E-03
     9 2.4625086429E-03
    10 2.3043797320E-04
    11 -1.8558339266E-16
    12 6.1869403126E-04
    13 -2.2183926708E-04
    14 8.2540776670E-16
    15 -6.2416406931E-04
    16 -2.3746430570E-03
    17 1.2907375817E-02
    18 1.4834739509E-15
    19 6.8486757924E-04
    20 -2.3273619801E-04
    21 3.4678324501E-15
    22 2.8919723521E-03
    23 -2.8264972140E-03
    24 5.1600131314E-04
    25 -1.2450217982E-15
    26 -2.0820655212E-03
    27 -9.6182705288E-04
    28 7.7972989675E-16
    29 2.0633003587E-03
    30 9.2626520488E-03
    31 -1.1993781482E-02
    32 -1.6219948187E-15
    33 7.0078334163E-03
    34 -1.1947744659E-03
    35 -2.2637576501E-15
    36 -2.7069017577E-03
    37 -3.5036410647E-03
    38 1.3310926759E-04
    39 -1.3103613832E-15
    40 6.5122417801E-04
    41 -2.2673158521E-04
    42 -4.0714692133E-16
    43 -1.0039144536E+00
    44 -5.5676783470E-03
    45 1.8898453169E-02
    46 1.2477577980E-15
    47 2.7452807077E-03
    48 -9.9861936894E-04
    49 1.1658576318E-15
    50 -2.4799727381E-03
    51 2.7771180732E-03
    52 -1.2426034445E-03
    53 5.1507457667E-16
    54 2.7923223079E-03
    55 2.3158141325E-03
    56 -1.7392724309E-16
    57 -9.1504275221E-04
    58 -1.3194371801E-03
    59 5.2026782475E-16
    60 1.5529536627E-04
    61 2.0469037765E-04
    62 -1.6804966456E-03
    63 1.0346087224E-03
    64 1.3934426251E-16
    65 -6.0756362059E-04
    66 6.1154067472E-04
    67 -7.3411668838E-04
    68 -1.1102084151E-03
    69 1.9733064026E-17
    70 -2.3778211685E-04
    71 -1.5512193143E-04
    72 6.4533818254E-03
    73 -7.9537638272E-04
    74 1.3535373552E-17
    75 -1.1997858556E-03
    76 1.2295623838E-03
   Sym= A
   Ene=     0.0000000000
  Spin= Alpha
 Occup= 1.9999685909
     1 -6.7510944671E-04
     2 -2.2423598459E-03
     3 1.2945852492E-02
     4 4.1607798910E-16
     5 -7.5100936571E-04
     6 -3.3300514392E-04
     7 5.1459026195E-15
     8 -2.8931030940E-03
     9 -2.8263437408E-03
    10 5.2024180529E-04
    11 -9.9901440258E-16
    12 2.0868796133E-03
    13 -9.6576990283E-04
    14 7.3801191739E-17
    15 1.3629236511E-03
    16 1.0939819201E-02
    17 -1.1479690217E-02
    18 -4.4319948568E-16
    19 -1.2957145552E-03
    20 -8.4458364512E-03
    21 -3.5116366284E-15
    22 -3.4931919390E-03
    23 2.4600741757E-03
    24 2.3542894123E-04
    25 -5.3076471895E-16
    26 -6.2354885721E-04
    27 -2.2476286937E-04
    28 2.6829201916E-16
    29 -1.0039358839E+00
    30 -5.4048217764E-03
    31 1.8938133841E-02
    32 -1.0971555794E-15
    33 -2.6736592619E-03
    34 -8.8254379118E-04
    35 6.7349368311E-15
    36 2.4772968823E-03
    37 2.7763117748E-03
    38 -1.2365972521E-03
    39 -1.2381003393E-16
    40 -2.7879877459E-03
    41 2.3131781902E-03
    42 -8.9958602581E-16
    43 2.2366199268E-03
    44 9.4201842590E-03
    45 -1.1981226240E-02
    46 2.0551442894E-15
    47 -7.0951671856E-03
    48 -1.0962449472E-03
    49 -8.3520685662E-15
    50 2.7136311336E-03
    51 -3.5053122470E-03
    52 1.3620911192E-04
    53 -5.1450286661E-16
    54 -6.5455481258E-04
    55 -2.3179342311E-04
    56 7.5325291013E-16
    57 -1.6801636828E-03
    58 1.0285689561E-03
    59 -3.6127812044E-16
    60 6.0533157007E-04
    61 6.0811246778E-04
    62 -9.1708429301E-04
    63 -1.3307821460E-03
    64 5.7079682812E-16
    65 -1.5254673012E-04
    66 2.0107157199E-04
    67 6.4603214087E-03
    68 -8.0644845575E-04
    69 -1.0638511125E-15
    70 1.2032440926E-03
    71 1.2345818761E-03
    72 -7.3663074746E-04
    73 -1.1200809211E-03
    74 4.9753473639E-16
    75 2.3520932608E-04
    76 -1.5161382534E-04
   Sym= A
   Ene=     0.0000000000
  Spin= Alpha
 Occup= 1.9999680128
     1 1.0038831477E+00
     2 5.9604967780E-03
     3 -1.8819826709E-02
     4 9.2238613069E-18
     5 -2.9236372430E-03
     6 -1.1264598343E-03
     7 -8.3087175618E-16
     8 2.4726287168E-03
     9 2.7779267403E-03
    10 1.2452899683E-03
    11 6.0114653018E-16
    12 2.7967980016E-03
    13 -2.3276216229E-03
    14 -1.2907654659E-16
    15 -2.1006336749E-03
    16 -9.0796056469E-03
    17 1.2053485926E-02
    18 -3.2019870284E-18
    19 -6.7411207292E-03
    20 -1.1306721548E-03
    21 -5.6829178342E-17
    22 2.7376333962E-03
    23 -3.4828426599E-03
    24 -1.4548573167E-04
    25 9.9648644927E-18
    26 6.4524325197E-04
    27 2.1009103712E-04
    28 -2.6669548614E-16
    29 6.4290717529E-04
    30 2.3601889351E-03
    31 -1.2967825600E-02
    32 -1.5795159910E-16
    33 -6.7166371243E-04
    34 -2.0859765688E-04
    35 -3.1798645749E-16
    36 -2.9184055716E-03
    37 -2.8497102871E-03
    38 -5.1451195889E-04
    39 -4.3425096768E-17
    40 -2.0768081433E-03
    41 9.6216784044E-04
    42 -1.7735589765E-16
    43 -2.8291198057E-03
    44 -1.0666113261E-02
    45 1.1535964857E-02
    46 1.0509114851E-16
    47 -1.2868223232E-03
    48 -8.1057259110E-03
    49 1.5130991720E-15
    50 -3.4549551733E-03
    51 2.4835980773E-03
    52 -2.1485713429E-04
    53 5.5878865760E-16
    54 6.1966703089E-04
    55 2.2903491451E-04
    56 -3.2539380833E-16
    57 -6.4462760702E-03
    58 7.6159885641E-04
    59 -2.6732396454E-17
    60 1.1933621688E-03
    61 1.2244298317E-03
    62 7.2536523121E-04
    63 1.0964663980E-03
    64 -6.5750595422E-17
    65 2.4283085571E-04
    66 -1.5517208488E-04
    67 1.7091262567E-03
    68 -1.0177134676E-03
    69 -1.2315143594E-17
    70 6.0887865691E-04
    71 6.1316991888E-04
    72 9.2872315360E-04
    73 1.3122760036E-03
    74 3.4564515089E-18
    75 -1.5802153835E-04
    76 2.1159422082E-04
   Sym= A
   Ene=     0.0000000000
  Spin= Alpha
 Occup= 1.9999676771
     1 2.2419895598E-03
     2 9.2499581294E-03
     3 -1.2035510475E-02
     4 -9.5730074291E-16
     5 -6.8486271511E-03
     6 1.0408964553E-03
     7 4.8222142885E-15
     8 2.7414110946E-03
     9 3.4861025098E-03
    10 1.4750049977E-04
    11 -2.3458147287E-16
    12 6.4879196317E-04
    13 -2.1630499175E-04
    14 -4.4757402739E-16
    15 -1.0039059926E+00
    16 -5.7783758240E-03
    17 1.8863102051E-02
    18 -3.0937708440E-16
    19 -2.8333587651E-03
    20 1.0138783029E-03
    21 -5.8047934233E-15
    22 2.4719654877E-03
    23 -2.7757367027E-03
    24 -1.2400694254E-03
    25 1.1020713453E-15
    26 2.7922648809E-03
    27 2.3238741246E-03
    28 -1.1680232821E-15
    29 2.7530798107E-03
    30 1.0815251800E-02
    31 -1.1526659650E-02
    32 2.0754077674E-15
    33 -1.2290814328E-03
    34 8.2300732881E-03
    35 3.8123629905E-15
    36 -3.4715642060E-03
    37 -2.4811695982E-03
    38 2.2010917660E-04
    39 1.3411992553E-15
    40 6.2437190070E-04
    41 -2.3153187249E-04
    42 1.8780019841E-15
    43 -6.9343161395E-04
    44 -2.2307855896E-03
    45 1.3001910218E-02
    46 -3.3565316807E-15
    47 -7.3808509007E-04
    48 3.0772940889E-04
    49 -1.7509393294E-15
    50 -2.9180627682E-03
    51 2.8480613204E-03
    52 5.1879186764E-04
    53 -9.1502760152E-16
    54 -2.0818428699E-03
    55 -9.6602992200E-04
    56 4.7879580275E-16
    57 -7.2834109866E-04
    58 -1.1076872945E-03
    59 -4.1960642243E-16
    60 2.3982787933E-04
    61 1.5172668493E-04
    62 6.4524145368E-03
    63 -7.7468553098E-04
    64 2.4075496537E-16
    65 1.1972286085E-03
    66 -1.2294320700E-03
    67 -9.2888818986E-04
    68 -1.3229722655E-03
    69 2.8192333320E-16
    70 -1.5508198717E-04
    71 -2.0776475739E-04
    72 -1.7071696126E-03
    73 1.0127466493E-03
    74 -2.6540160052E-16
    75 6.0658918862E-04
    76 -6.0976744658E-04
   Sym= A
   Ene=     0.0000000000
  Spin= Alpha
 Occup= 1.9979356129
     1 -1.8540228900E-15
     2 -7.3444449754E-15
     3 1.8387112514E-13
     4 4.3469788098E-01
     5 -4.4486651637E-15
     6 -1.1500130658E-15
     7 8.3395875699E-02
     8 -5.1161526311E-14
     9 -5.1083906993E-14
    10 5.6304543707E-16
    11 -2.7951396573E-02
    12 -4.0853380813E-16
    13 -1.9093959329E-15
    14 -2.8221970689E-02
    15 1.5208277571E-15
    16 4.3844746840E-15
    17 -1.8885797251E-13
    18 4.3530864735E-01
    19 -3.2823023265E-15
    20 1.2592393138E-15
    21 8.3858876420E-02
    22 -5.0016507372E-14
    23 5.2181548364E-14
    24 -9.7813829150E-16
    25 -2.7998181223E-02
    26 5.4064101777E-16
    27 2.2674126318E-15
    28 2.8211894527E-02
    29 -1.0509052304E-15
    30 -2.2385838046E-15
    31 1.5293431110E-13
    32 4.3521568097E-01
    33 -3.5878358449E-17
    34 2.2268605929E-15
    35 8.3936190933E-02
    36 3.2998120979E-14
    37 4.6907607503E-14
    38 1.4759016253E-15
    39 2.7972634553E-02
    40 -7.7776648767E-16
    41 4.4079950808E-16
    42 2.8202139436E-02
    43 1.0146544805E-15
    44 3.6026113689E-15
    45 -1.4655208837E-13
    46 4.3459418650E-01
    47 -3.5800010488E-15
    48 -9.4976296304E-16
    49 8.3473522516E-02
    50 3.4589386183E-14
    51 -4.7041795117E-14
    52 -6.2712435025E-16
    53 2.7925300972E-02
    54 -9.9299617592E-16
    55 5.3400768396E-16
    56 -2.8211103145E-02
    57 1.6517787434E-15
    58 1.5687799416E-14
    59 9.6084773080E-03
    60 5.6996691578E-16
    61 4.8192527824E-16
    62 1.7000475732E-15
    63 -1.4501017665E-14
    64 9.6245274144E-03
    65 8.8639144666E-16
    66 -1.3511335593E-15
    67 1.6287064213E-15
    68 9.6331226774E-15
    69 9.6221132398E-03
    70 -3.2103816824E-16
    71 -6.4176181819E-16
    72 1.0721934402E-16
    73 -1.3071727465E-14
    74 9.6061817496E-03
    75 -2.7094872720E-16
    76 6.7462478275E-16
   Sym= A
   Ene=     0.0000000000
  Spin= Alpha
 Occup= 1.9966528681
     1 -1.7960283602E-03
     2 -5.3967631596E-02
     3 -5.3308324906E-02
     4 1.4613453819E-15
     5 -2.9161787373E-02
     6 6.9288610479E-03
     7 -1.7597993003E-16
     8 2.1388937494E-02
     9 2.7324255997E-02
    10 -5.3023139510E-03
    11 -4.6136623433E-16
    12 4.9381116050E-03
    13 -2.4066084071E-03
    14 -6.1180246127E-16
    15 -4.2414323071E-02
    16 4.5895382008E-01
    17 1.2253488496E-01
    18 -1.0918550525E-15
    19 -1.8892025406E-01
    20 -5.8916922625E-01
    21 5.7282328213E-16
    22 -4.5744805195E-02
    23 -7.4116196499E-02
    24 4.3935606147E-02
    25 7.5358643721E-16
    26 -3.0598501493E-03
    27 7.6891558132E-03
    28 -2.8661145205E-16
    29 -4.2003194515E-02
    30 4.5859944202E-01
    31 1.2247573852E-01
    32 -1.1225660372E-15
    33 -1.8990868871E-01
    34 5.8924500055E-01
    35 2.1944064725E-15
    36 -4.5963683454E-02
    37 7.4124909571E-02
    38 4.3963722995E-02
    39 4.2553103776E-16
    40 3.0604591143E-03
    41 7.7333343232E-03
    42 -7.7571166033E-16
    43 -1.6937870892E-03
    44 -5.4591658349E-02
    45 -5.3652575224E-02
    46 -5.0960109846E-16
    47 -2.8395500581E-02
    48 -6.6798346400E-03
    49 -1.5442629188E-15
    50 2.1544422239E-02
    51 -2.7347817627E-02
    52 -5.2542182569E-03
    53 -2.0468793427E-16
    54 -4.9286259191E-03
    55 -2.3569275624E-03
    56 -1.3972651879E-16
    57 3.7290846822E-02
    58 2.5683302668E-02
    59 3.0876040568E-16
    60 -9.7443240799E-04
    61 -2.8772822224E-03
    62 -1.9334036162E-02
    63 -4.8357729338E-02
    64 1.1350894984E-16
    65 -2.0016620678E-04
    66 -1.3917236378E-02
    67 -1.8820609649E-02
    68 -4.8169208736E-02
    69 -1.4926852540E-16
    70 -1.9508467116E-04
    71 1.3935420534E-02
    72 3.7386870201E-02
    73 2.5776204698E-02
    74 4.0979312896E-17
    75 -9.6096263077E-04
    76 2.8828348334E-03
   Sym= A
   Ene=     0.0000000000
  Spin= Alpha
 Occup= 1.9964764030
     1 4.2335074482E-02
     2 -4.5623666665E-01
     3 -1.2494380787E-01
     4 -4.3502264175E-16
     5 -1.9563228293E-01
     6 5.9025956093E-01
     7 4.5120723562E-15
     8 -4.5073886535E-02
     9 7.5350555840E-02
    10 -4.4224343966E-02
    11 2.0848572776E-16
    12 -2.8906740993E-03
    13 -8.1030855547E-03
    14 -1.6113610055E-16
    15 5.8119372230E-04
    16 6.0814123495E-02
    17 5.7056243302E-02
    18 7.0614977530E-17
    19 -2.4745235498E-02
    20 -1.1154549524E-02
    21 -4.0292052625E-15
    22 2.2607845906E-02
    23 -2.7890907052E-02
    24 5.3472983388E-03
    25 1.4351030275E-16
    26 4.6231020316E-03
    27 2.2619450999E-03
    28 -4.7972384325E-16
    29 4.8296206188E-04
    30 6.1447407533E-02
    31 5.7398769283E-02
    32 1.2235972471E-15
    33 -2.3960024510E-02
    34 1.0902933253E-02
    35 4.5266388909E-15
    36 2.2767163300E-02
    37 2.7914473955E-02
    38 5.2979695099E-03
    39 6.7905963374E-17
    40 -4.6134345393E-03
    41 2.2110034152E-03
    42 6.0036689076E-16
    43 4.1923164978E-02
    44 -4.5588765805E-01
    45 -1.2488597578E-01
    46 -4.9581337793E-16
    47 -1.9665193020E-01
    48 -5.9032940758E-01
    49 -4.7215268971E-15
    50 -4.5303086767E-02
    51 -7.5358147480E-02
    52 -4.4251821817E-02
    53 -3.6548358011E-16
    54 2.8898760010E-03
    55 -8.1486586020E-03
    56 7.3938488427E-16
    57 1.8780712767E-02
    58 4.8040636422E-02
    59 -4.1772328087E-16
    60 -3.5572852762E-04
    61 1.3929057388E-02
    62 -3.7899121927E-02
    63 -2.6150236494E-02
    64 5.0232275103E-17
    65 -8.4376461090E-04
    66 2.8128770899E-03
    67 -3.8001681861E-02
    68 -2.6245267453E-02
    69 -1.5714063112E-16
    70 -8.2983181687E-04
    71 -2.8186722581E-03
    72 1.8236943378E-02
    73 4.7845760127E-02
    74 5.6944536671E-17
    75 -3.4934523375E-04
    76 -1.3948626601E-02
   Sym= A
   Ene=     0.0000000000
  Spin= Alpha
 Occup= 1.9962552162
     1 -4.4295847342E-02
     2 4.4709770555E-01
     3 1.2539954073E-01
     4 1.8673614494E-15
     5 -5.9356025769E-01
     6 2.0657174839E-01
     7 -1.0349303353E-15
     8 -7.8116253773E-02
     9 4.4600848247E-02
    10 -3.0064359701E-02
    11 -2.9430352994E-16
    12 3.3070284103E-03
    13 -3.3626490576E-02
    14 -1.2884464108E-16
    15 -4.3812533475E-02
    16 4.4208802385E-01
    17 1.2583824034E-01
    18 -7.5460467507E-16
    19 5.9543296028E-01
    20 2.1286724783E-01
    21 8.3643283027E-17
    22 7.9279352248E-02
    23 4.5486839321E-02
    24 -3.0575146417E-02
    25 3.8813594410E-16
    26 -3.3935551913E-03
    27 -3.3620840751E-02
    28 -2.4579443513E-16
    29 8.0746035698E-04
    30 -7.0637617623E-02
    31 -6.0353966783E-02
    32 -1.0107098886E-16
    33 -5.2263695162E-03
    34 5.5410944211E-03
    35 -7.8186380223E-16
    36 -2.6370096243E-02
    37 -2.4855805813E-02
    38 3.3620050935E-03
    39 1.3063341051E-16
    40 4.4180921114E-03
    41 3.1558692802E-03
    42 -3.2686276135E-16
    43 3.3201284835E-04
    44 -6.5367907702E-02
    45 -5.9896170946E-02
    46 6.6792671636E-16
    47 7.3379228613E-03
    48 1.1403625871E-02
    49 1.2878306670E-15
    50 2.7134382612E-02
    51 -2.4268693591E-02
    52 3.9044557938E-03
    53 -6.1814049893E-18
    54 -4.3245036992E-03
    55 3.1860063293E-03
    56 -8.9697608409E-17
    57 -1.9751107773E-02
    58 -4.7420443225E-02
    59 6.6917912822E-17
    60 -1.3820415677E-02
    61 7.4360386721E-04
    62 -1.8520713711E-02
    63 -4.6425513505E-02
    64 -1.4743039699E-16
    65 1.3843065003E-02
    66 8.3479809957E-04
    67 4.0483994996E-02
    68 2.7763994448E-02
    69 -5.3756821198E-17
    70 2.9620513774E-03
    71 4.8391485177E-04
    72 3.9874381205E-02
    73 2.6890855507E-02
    74 -2.7682764835E-17
    75 -2.9553869060E-03
    76 6.1769192533E-04
   Sym= A
   Ene=     0.0000000000
  Spin= Alpha
 Occup= 1.9962552705
     1 -2.3159254864E-04
     2 6.4603236079E-02
     3 5.9729275372E-02
     4 5.1546050212E-16
     5 -7.0018371396E-03
     6 1.1981815423E-02
     7 -2.5585580594E-15
     8 -2.7155569682E-02
     9 -2.4231373023E-02
    10 -3.9267227596E-03
    11 5.6564965193E-16
    12 -4.3488608128E-03
    13 -3.1651650278E-03
    14 4.2123408556E-16
    15 -7.1124645240E-04
    16 6.9891837709E-02
    17 6.0209766076E-02
    18 1.3877986531E-15
    19 4.8823246496E-03
    20 6.0982994439E-03
    21 2.6780895888E-15
    22 2.6394462614E-02
    23 -2.4826355580E-02
    24 -3.3821569453E-03
    25 -9.2666086009E-16
    26 4.4419101888E-03
    27 -3.1347244578E-03
    28 3.4380048997E-16
    29 4.3447781040E-02
    30 -4.4230390063E-01
    31 -1.2571445460E-01
    32 1.5412869250E-15
    33 -5.9557383305E-01
    34 2.1195874592E-01
    35 -4.0981317511E-15
    36 -7.9237051391E-02
    37 4.5427258578E-02
    38 3.0533136083E-02
    39 -6.7928609619E-16
    40 -3.4375505121E-03
    41 3.3625084558E-02
    42 5.4485457311E-16
    43 4.3896968161E-02
    44 -4.4734321883E-01
    45 -1.2528063552E-01
    46 1.4866139584E-15
    47 5.9368943789E-01
    48 2.0565118484E-01
    49 4.0687017830E-15
    50 7.8073268944E-02
    51 4.4541748621E-02
    52 3.0021414714E-02
    53 9.9693793304E-17
    54 3.3516070965E-03
    55 3.3629546064E-02
    56 1.0426173610E-16
    57 -3.9869479335E-02
    58 -2.6852709633E-02
    59 -1.3809813138E-16
    60 2.9666262785E-03
    61 6.3731958297E-04
    62 -4.0481548892E-02
    63 -2.7727651800E-02
    64 -8.9403947205E-18
    65 -2.9736938530E-03
    66 5.0355861829E-04
    67 1.8881624951E-02
    68 4.6500375979E-02
    69 3.0054622265E-17
    70 -1.3830853044E-02
    71 8.3623961396E-04
    72 2.0098117467E-02
    73 4.7494220255E-02
    74 -2.3353384794E-16
    75 1.3808931040E-02
    76 7.4399208280E-04
   Sym= A
   Ene=     0.0000000000
  Spin= Alpha
 Occup= 1.9771751002
     1 8.2508678044E-03
     2 -2.3596148076E-02
     3 -3.1337437905E-02
     4 1.3821768872E-16
     5 1.0503972117E-01
     6 -4.6765227500E-02
     7 1.0623101326E-15
     8 2.0596973940E-02
     9 -3.6637659634E-02
    10 6.7810745398E-03
    11 2.7567776850E-16
    12 -2.0883483667E-02
    13 5.6689871813E-03
    14 -2.5027324030E-16
    15 -9.1123408619E-03
    16 3.1540701480E-01
    17 1.7178143864E-01
    18 1.3943249879E-15
    19 -4.0764988659E-01
    20 4.0530214280E-01
    21 -7.6410495203E-16
    22 -6.5952194241E-02
    23 6.3374487714E-02
    24 -2.9417838485E-03
    25 -2.8698938598E-16
    26 -9.1279536150E-03
    27 4.3085539842E-03
    28 -3.5246720418E-16
    29 8.3751579972E-03
    30 -2.4056448142E-02
    31 -3.3790253995E-02
    32 1.3906359901E-15
    33 4.4688179612E-02
    34 -1.0313321139E-01
    35 1.3134521575E-15
    36 3.7389457630E-02
    37 -2.1514798210E-02
    38 -8.1264754751E-03
    39 -1.3484505793E-16
    40 -2.0684067580E-02
    41 -2.9162362182E-03
    42 7.1339818206E-16
    43 -5.6188271025E-04
    44 8.0659737992E-02
    45 5.1836135421E-02
    46 -6.1768052705E-16
    47 -1.8940391869E-02
    48 2.1413605177E-02
    49 -1.2804155681E-15
    50 -1.1093339216E-02
    51 1.1829142408E-02
    52 2.1029828329E-04
    53 -6.6439268128E-17
    54 -1.8797717500E-03
    55 -1.3531935050E-04
    56 5.1310836707E-16
    57 -3.7852467693E-02
    58 -1.6050102673E-02
    59 -3.0246826115E-16
    60 3.7593380617E-03
    61 -1.6435751149E-03
    62 7.5855281155E-01
    63 1.9292217388E-01
    64 5.3097308388E-17
    65 2.2399425852E-02
    66 -2.2564553198E-02
    67 -3.7828399014E-02
    68 -1.6090974813E-02
    69 -9.7793026055E-17
    70 1.5470560117E-03
    71 -3.7802333053E-03
    72 -5.3873633068E-02
    73 -4.2370147276E-02
    74 -4.9635037570E-17
    75 1.7575127947E-03
    76 -1.7468488961E-03
   Sym= A
   Ene=     0.0000000000
  Spin= Alpha
 Occup= 1.9771723302
     1 5.5258896246E-04
     2 -8.0588584866E-02
     3 -5.1818537664E-02
     4 -1.6224210382E-16
     5 1.8825215117E-02
     6 2.1412235923E-02
     7 5.2906672243E-16
     8 1.1077588517E-02
     9 1.1820297694E-02
    10 -2.1904996744E-04
    11 -1.9639035977E-16
    12 -1.8739241764E-03
    13 1.2591355955E-04
    14 -1.2615996866E-16
    15 -8.4108575532E-03
    16 2.4403281396E-02
    17 3.3882451003E-02
    18 4.5866142805E-16
    19 -4.4674252812E-02
    20 -1.0349012167E-01
    21 3.2198516041E-16
    22 -3.7366109368E-02
    23 -2.1567420500E-02
    24 8.1482375943E-03
    25 3.0309210323E-16
    26 -2.0688100841E-02
    27 2.9144705736E-03
    28 -1.7723752418E-17
    29 9.0870734306E-03
    30 -3.1543265863E-01
    31 -1.7180895657E-01
    32 1.3649954284E-16
    33 4.0713758176E-01
    34 4.0580690789E-01
    35 1.0566310021E-15
    36 6.5853879359E-02
    37 6.3450046077E-02
    38 2.9783779113E-03
    39 1.3711575399E-16
    40 -9.1200434644E-03
    41 -4.2916181518E-03
    42 -5.9035931881E-16
    43 -8.2094802345E-03
    44 2.3296207919E-02
    45 3.1205070941E-02
    46 -8.0939368244E-16
    47 -1.0467958494E-01
    48 -4.6613118501E-02
    49 -1.1115988025E-15
    50 -2.0534565611E-02
    51 -3.6631845446E-02
    52 -6.7614018722E-03
    53 -1.7517590754E-16
    54 -2.0884883617E-02
    55 -5.6458300082E-03
    56 -5.3438329307E-16
    57 5.3847586049E-02
    58 4.2363260015E-02
    59 4.8320732474E-17
    60 -1.7568568771E-03
    61 -1.7469461191E-03
    62 3.7736989811E-02
    63 1.6036529570E-02
    64 -2.3124265626E-17
    65 -1.5506859729E-03
    66 -3.7856107978E-03
    67 -7.5852324601E-01
    68 -1.9291631797E-01
    69 -8.4813674882E-17
    70 -2.2406923574E-02
    71 -2.2555607770E-02
    72 3.7910973103E-02
    73 1.6111621916E-02
    74 1.0512512214E-17
    75 -3.7516951490E-03
    76 -1.6400152883E-03
   Sym= A
   Ene=     0.0000000000
  Spin= Alpha
 Occup= 1.9771637997
     1 9.0638185399E-03
     2 -3.1493194991E-01
     3 -1.7142638344E-01
     4 6.5816053679E-16
     5 -4.0673127049E-01
     6 -4.0670630675E-01
     7 8.1774983836E-17
     8 -6.5974243223E-02
     9 -6.3620443971E-02
    10 3.0440578783E-03
    11 -2.5003913320E-16
    12 -9.1365824736E-03
    13 -4.2455453331E-03
    14 -2.2415604039E-20
    15 -8.1497540308E-03
    16 2.2548951512E-02
    17 3.0810149582E-02
    18 -8.9148746835E-16
    19 1.0463873590E-01
    20 4.7495201369E-02
    21 -5.6357043702E-16
    22 2.0447998653E-02
    23 3.6810868858E-02
    24 -6.8168703939E-03
    25 4.4547780358E-16
    26 -2.0846286972E-02
    27 -5.6286143814E-03
    28 -1.5039076313E-16
    29 6.4312447117E-04
    30 -8.1265309161E-02
    31 -5.2208597048E-02
    32 3.2811986263E-17
    33 -1.8732144599E-02
    34 -2.2262043205E-02
    35 6.3251958172E-16
    36 -1.1193601983E-02
    37 -1.1967464812E-02
    38 -2.7850610849E-04
    39 3.4837006158E-16
    40 -1.8901581290E-03
    41 1.3207457536E-04
    42 -3.1917016672E-16
    43 -8.4823240274E-03
    44 2.4984846460E-02
    45 3.4479744628E-02
    46 1.0252310685E-15
    47 4.5132709647E-02
    48 1.0421452092E-01
    49 7.7698305975E-17
    50 3.7359656659E-02
    51 2.1754043605E-02
    52 8.2112962558E-03
    53 4.9318742964E-17
    54 -2.0660096418E-02
    55 2.9416977279E-03
    56 -3.5458255637E-16
    57 -7.5865415641E-01
    58 -1.9292660949E-01
    59 -4.0385387306E-17
    60 2.2406136626E-02
    61 2.2555186733E-02
    62 3.8141053523E-02
    63 1.6176589216E-02
    64 -1.1389688768E-16
    65 3.7595020917E-03
    66 1.6395563321E-03
    67 5.3965543860E-02
    68 4.2416726781E-02
    69 -6.9417249648E-17
    70 1.7628641410E-03
    71 1.7352683638E-03
    72 3.7668705783E-02
    73 1.5876081433E-02
    74 8.2367433427E-17
    75 1.5506401730E-03
    76 3.8027304845E-03
   Sym= A
   Ene=     0.0000000000
  Spin= Alpha
 Occup= 1.9771604961
     1 -8.5194642386E-03
     2 2.5342806258E-02
     3 3.4575050293E-02
     4 1.0466303661E-15
     5 4.5128717239E-02
     6 -1.0459098444E-01
     7 -1.8369737335E-15
     8 3.7336451045E-02
     9 -2.1809005651E-02
    10 8.2347974097E-03
    11 1.5273600803E-16
    12 2.0664409195E-02
    13 2.9405832486E-03
    14 7.6258286122E-17
    15 6.3490143835E-04
    16 -8.1204091461E-02
    17 -5.2198803755E-02
    18 9.0465226473E-17
    19 -1.8618452450E-02
    20 2.2265793997E-02
    21 8.7292850351E-16
    22 -1.1179097323E-02
    23 1.1960387471E-02
    24 -2.8747884431E-04
    25 1.2276673494E-16
    26 1.8840765714E-03
    27 1.2267056475E-04
    28 2.3221964835E-16
    29 -8.1090842155E-03
    30 2.2250358740E-02
    31 3.0676733246E-02
    32 -3.0637308295E-16
    33 1.0428902345E-01
    34 -4.7352751366E-02
    35 -1.6723691843E-15
    36 2.0385315347E-02
    37 -3.6806924829E-02
    38 -6.7982757432E-03
    39 3.1121598354E-17
    40 2.0847372271E-02
    41 -5.6061531989E-03
    42 -2.6139377850E-16
    43 9.0363363297E-03
    44 -3.1493484792E-01
    45 -1.7144328427E-01